
# --- Temperature CSV output for complete simulation ---
variable temp_all equal temp
fix temp_output all print 1 "$(step),${temp_all}" file temperature.csv screen no title "Step,Temperature"


# --- Use a consistent thermo_style for all runs ---
thermo_style custom step temp etotal v_Lcnt
thermo 100  # or 10 or 1 for higher resolution

compute Tmid cnt_mid temp
thermo 300
thermo_style custom step temp etotal v_Lcnt
thermo_modify temp Tmid line yaml
WARNING: Temperature for thermo pressure is not for group all (src/src/thermo.cpp:533)

timestep 0.1
run 100

CITE-CITE-CITE-CITE-CITE-CITE-CITE-CITE-CITE-CITE-CITE-CITE-CITE

Your simulation uses code contributions which should be cited:

- Type Label Framework: https://doi.org/10.1021/acs.jpcb.3c08419

@Article{Gissinger24,
 author = {Jacob R. Gissinger, Ilia Nikiforov, Yaser Afshar, Brendon Waters, Moon-ki Choi, Daniel S. Karls, Alexander Stukowski, Wonpil Im, Hendrik Heinz, Axel Kohlmeyer, and Ellad B. Tadmor},
 title = {Type Label Framework for Bonded Force Fields in LAMMPS},
 journal = {J. Phys. Chem. B},
 year =    2024,
 volume =  128,
 number =  13,
 pages =   {3282–-3297}
}

CITE-CITE-CITE-CITE-CITE-CITE-CITE-CITE-CITE-CITE-CITE-CITE-CITE

Generated 0 of 0 mixed pair_coeff terms from geometric mixing rule
Per MPI rank memory allocation (min/avg/max) = 12.82 | 12.82 | 12.82 Mbytes
---
keywords: ['Step', 'Temp', 'TotEng', 'v_Lcnt', ]
data:
  - [0, 300, 3393.22803180669, 55.472, ]
  - [100, 213.731408727689, 3394.20029810852, 55.472, ]
...
Loop time of 0.0488237 on 8 procs for 100 steps with 693 atoms

Performance: 17.696 ns/day, 1.356 hours/ns, 2048.185 timesteps/s, 1.419 Matom-step/s
99.9% CPU use with 8 MPI tasks x 1 OpenMP threads

MPI task timing breakdown:
Section |  min time  |  avg time  |  max time  |%varavg| %total
---------------------------------------------------------------
Pair    | 0.0023909  | 0.015341   | 0.030726   |   7.9 | 31.42
Bond    | 0.0098485  | 0.012898   | 0.017558   |   2.5 | 26.42
Neigh   | 0          | 0          | 0          |   0.0 |  0.00
Comm    | 0.0018648  | 0.018545   | 0.033992   |   8.8 | 37.98
Output  | 0.00022729 | 0.00025158 | 0.0002742  |   0.0 |  0.52
Modify  | 0.0011209  | 0.0014042  | 0.0016558  |   0.5 |  2.88
Other   |            | 0.0003843  |            |       |  0.79

Nlocal:         86.625 ave          91 max          82 min
Histogram: 1 0 2 0 1 0 1 2 0 1
Nghost:        457.375 ave         462 max         453 min
Histogram: 1 0 2 1 0 1 0 2 0 1
Neighs:        12749.6 ave       22701 max        3000 min
Histogram: 2 0 0 2 0 0 2 0 0 2

Total # of neighbors = 101997
Ave neighs/atom = 147.18182
Ave special neighs/atom = 17.064935
Neighbor list builds = 0
Dangerous builds = 0

velocity cnt_top set 0.003 0 0
velocity cnt_bot set -0.003 0 0

run 20000
Generated 0 of 0 mixed pair_coeff terms from geometric mixing rule
Per MPI rank memory allocation (min/avg/max) = 14.07 | 14.07 | 14.07 Mbytes
---
keywords: ['Step', 'Temp', 'TotEng', 'v_Lcnt', ]
data:
  - [100, 213.731408727689, 3394.20029810852, 55.472, ]
  - [300, 201.523483685547, 3426.63752587511, 55.5919999999997, ]
  - [600, 222.344405088095, 3505.97560543665, 55.7719999999993, ]
  - [900, 244.296608964892, 3583.43526490467, 55.9519999999989, ]
  - [1200, 260.211655584329, 3646.14533418704, 56.1319999999985, ]
  - [1500, 255.162035000872, 3715.06420479986, 56.311999999998, ]
  - [1800, 280.69876050127, 3794.73756852196, 56.4919999999976, ]
  - [2100, 266.804243011699, 3861.71888103963, 56.6719999999972, ]
  - [2400, 251.627874069042, 3931.27991373397, 56.8519999999968, ]
  - [2700, 263.111346577223, 3995.1945917973, 57.0319999999964, ]
  - [3000, 242.387299378166, 4069.54614383605, 57.211999999996, ]
  - [3300, 263.733952429444, 4197.77932170213, 57.3919999999955, ]
  - [3600, 264.790389550463, 4351.25285543935, 57.5719999999951, ]
  - [3900, 291.481239586844, 4510.34589107695, 57.7519999999947, ]
  - [4200, 314.796181120096, 4656.26842202624, 57.9319999999943, ]
  - [4500, 338.751017938279, 4806.22309780333, 58.1119999999938, ]
  - [4800, 328.129818602336, 4923.32234330805, 58.2919999999934, ]
  - [5100, 299.772757708038, 5008.73248256913, 58.471999999993, ]
  - [5400, 286.767950571989, 5115.34718480272, 58.6519999999926, ]
  - [5700, 278.958949431946, 5221.27500036213, 58.8319999999922, ]
  - [6000, 283.932806634706, 5355.5708348737, 59.0119999999918, ]
  - [6300, 279.464637263385, 5523.71354878793, 59.1919999999913, ]
  - [6600, 289.689742630447, 5717.00542429905, 59.3719999999909, ]
  - [6900, 289.710886411004, 5930.08399980991, 59.5519999999905, ]
  - [7200, 333.448942084633, 6164.97494176022, 59.7319999999901, ]
  - [7500, 345.257368533137, 6385.72759931193, 59.9119999999897, ]
  - [7800, 345.150523037185, 6560.66677919262, 60.0919999999892, ]
  - [8100, 302.323889164588, 6712.13263339345, 60.2719999999888, ]
  - [8400, 281.756412881622, 6892.06848807741, 60.4519999999884, ]
  - [8700, 287.348873794119, 7085.39852625717, 60.631999999988, ]
  - [9000, 276.621976151236, 7290.04591464372, 60.8119999999876, ]
  - [9300, 283.15893905871, 7534.00534419266, 60.9919999999871, ]
  - [9600, 289.570354190353, 7800.34340975993, 61.1719999999867, ]
  - [9900, 310.435827573979, 8091.54413311583, 61.3519999999863, ]
  - [10200, 324.288397073566, 8399.54900075279, 61.5319999999859, ]
  - [10500, 339.158400894883, 8682.31459516049, 61.7119999999855, ]
  - [10800, 331.003904253835, 8940.12458727069, 61.891999999985, ]
  - [11100, 311.128173004881, 9184.96570270661, 62.0719999999846, ]
  - [11400, 298.244684144054, 9432.23893924417, 62.2519999999842, ]
  - [11700, 273.346319643491, 9686.29575226239, 62.4319999999838, ]
  - [12000, 282.337508037461, 9967.50612734739, 62.6119999999834, ]
  - [12300, 288.436914799402, 10295.8114937125, 62.7919999999829, ]
  - [12600, 289.546002110704, 10646.2366158342, 62.9719999999825, ]
  - [12900, 300.790130115924, 11006.2120820347, 63.1519999999821, ]
  - [13200, 317.371068716707, 11367.4413435633, 63.3319999999817, ]
  - [13500, 344.6900205807, 11724.5328701414, 63.5119999999813, ]
  - [13800, 338.929328290944, 12063.7772110224, 63.6919999999808, ]
  - [14100, 313.152758780109, 12387.7026479501, 63.8719999999813, ]
  - [14400, 290.782000568635, 12699.686299139, 64.0519999999819, ]
  - [14700, 285.250117322539, 13027.0484230037, 64.2319999999825, ]
  - [15000, 280.097239113359, 13399.922419734, 64.411999999984, ]
  - [15300, 300.786651095774, 13805.8469401698, 64.5919999999857, ]
  - [15600, 289.235725194622, 14219.0865199633, 64.7719999999875, ]
  - [15900, 307.355555314902, 14647.3580587787, 64.9519999999892, ]
  - [16200, 313.905296838919, 15092.0136223769, 65.1319999999909, ]
  - [16500, 332.917110282256, 15518.4140367741, 65.3119999999926, ]
  - [16800, 323.719978840042, 15921.0015966987, 65.4919999999943, ]
  - [17100, 300.54799196563, 16318.3642384862, 65.671999999996, ]
  - [17400, 291.974068486044, 16706.1239181962, 65.8519999999977, ]
  - [17700, 280.076176230407, 17124.7426500002, 66.0319999999995, ]
  - [18000, 286.252145929113, 17571.7136191253, 66.2120000000012, ]
  - [18300, 282.342582312014, 18036.4069839082, 66.3920000000029, ]
  - [18600, 281.175778483757, 18525.5742051522, 66.5720000000046, ]
  - [18900, 315.417738863106, 19044.2818876481, 66.7520000000063, ]
  - [19200, 321.766896778772, 19558.0955641208, 66.932000000008, ]
  - [19500, 338.277903523819, 20046.2912429433, 67.1120000000097, ]
  - [19800, 324.356533291839, 20517.8378940183, 67.2920000000114, ]
  - [20100, 300.853244086213, 20993.0480313587, 67.4720000000131, ]
...
Loop time of 5.82587 on 8 procs for 20000 steps with 693 atoms

Performance: 29.661 ns/day, 0.809 hours/ns, 3432.966 timesteps/s, 2.379 Matom-step/s
99.9% CPU use with 8 MPI tasks x 1 OpenMP threads

MPI task timing breakdown:
Section |  min time  |  avg time  |  max time  |%varavg| %total
---------------------------------------------------------------
Pair    | 0.41865    | 1.8475     | 3.2953     |  75.3 | 31.71
Bond    | 1.7519     | 1.9912     | 2.1285     |   7.6 | 34.18
Neigh   | 0.0030695  | 0.0031079  | 0.0031437  |   0.0 |  0.05
Comm    | 0.26516    | 1.7404     | 3.1194     |  74.6 | 29.87
Output  | 0.023793   | 0.027432   | 0.030731   |   1.4 |  0.47
Modify  | 0.13644    | 0.16695    | 0.21303    |   5.2 |  2.87
Other   |            | 0.04924    |            |       |  0.85

Nlocal:         86.625 ave          89 max          84 min
Histogram: 1 0 1 0 2 0 2 0 0 2
Nghost:        420.875 ave         424 max         418 min
Histogram: 1 1 0 1 0 2 2 0 0 1
Neighs:        10819.4 ave       19442 max        2443 min
Histogram: 2 0 0 2 0 0 2 0 0 2

Total # of neighbors = 86555
Ave neighs/atom = 124.89899
Ave special neighs/atom = 17.064935
Neighbor list builds = 7
Dangerous builds = 0

# Remove force constraint from cnt_bot to let it jiggle
unfix mysf2

# Redefine Fcnt to avoid referencing mysf2, or skip outputting v_Fcnt
thermo_style custom step temp etotal v_Lcnt
WARNING: New thermo_style command, previous thermo_modify settings will be lost (src/src/output.cpp:904)
thermo 100

# Gradually release force constraint on cnt_bot
fix mysf2 cnt_bot setforce 0.1 0.0 0.0
run 100
Generated 0 of 0 mixed pair_coeff terms from geometric mixing rule
Per MPI rank memory allocation (min/avg/max) = 14.07 | 14.07 | 14.07 Mbytes
   Step          Temp          TotEng         v_Lcnt    
     20100   293.41057      20995.632      67.472       
     20200   297.73914      21148.408      67.531826    
Loop time of 0.027764 on 8 procs for 100 steps with 693 atoms

Performance: 31.119 ns/day, 0.771 hours/ns, 3601.791 timesteps/s, 2.496 Matom-step/s
100.0% CPU use with 8 MPI tasks x 1 OpenMP threads

MPI task timing breakdown:
Section |  min time  |  avg time  |  max time  |%varavg| %total
---------------------------------------------------------------
Pair    | 0.0019581  | 0.0084742  | 0.015118   |   5.1 | 30.52
Bond    | 0.0088393  | 0.0099498  | 0.010457   |   0.5 | 35.84
Neigh   | 0          | 0          | 0          |   0.0 |  0.00
Comm    | 0.0011759  | 0.0080752  | 0.014447   |   5.1 | 29.09
Output  | 0.0001464  | 0.00016435 | 0.00018067 |   0.0 |  0.59
Modify  | 0.0006917  | 0.00084502 | 0.0010769  |   0.0 |  3.04
Other   |            | 0.0002554  |            |       |  0.92

Nlocal:         86.625 ave          89 max          83 min
Histogram: 1 1 0 0 0 1 2 0 1 2
Nghost:        418.875 ave         423 max         416 min
Histogram: 1 1 2 0 2 0 0 1 0 1
Neighs:        10786.2 ave       19394 max        2440 min
Histogram: 2 0 0 2 0 0 2 0 0 2

Total # of neighbors = 86290
Ave neighs/atom = 124.51659
Ave special neighs/atom = 17.064935
Neighbor list builds = 0
Dangerous builds = 0
fix mysf2 cnt_bot setforce 0.01 0.0 0.0
run 100
Generated 0 of 0 mixed pair_coeff terms from geometric mixing rule
Per MPI rank memory allocation (min/avg/max) = 14.07 | 14.07 | 14.07 Mbytes
   Step          Temp          TotEng         v_Lcnt    
     20200   297.73914      21148.408      67.531826    
     20300   287.52234      21304.261      67.59146     
Loop time of 0.0278054 on 8 procs for 100 steps with 693 atoms

Performance: 31.073 ns/day, 0.772 hours/ns, 3596.427 timesteps/s, 2.492 Matom-step/s
100.0% CPU use with 8 MPI tasks x 1 OpenMP threads

MPI task timing breakdown:
Section |  min time  |  avg time  |  max time  |%varavg| %total
---------------------------------------------------------------
Pair    | 0.0020812  | 0.008476   | 0.015126   |   5.1 | 30.48
Bond    | 0.0087376  | 0.0099695  | 0.010727   |   0.6 | 35.85
Neigh   | 0          | 0          | 0          |   0.0 |  0.00
Comm    | 0.0012512  | 0.008104   | 0.014443   |   5.0 | 29.15
Output  | 0.00013591 | 0.00015984 | 0.00018363 |   0.0 |  0.57
Modify  | 0.00069065 | 0.0008452  | 0.0010693  |   0.0 |  3.04
Other   |            | 0.0002508  |            |       |  0.90

Nlocal:         86.625 ave          91 max          83 min
Histogram: 2 0 1 0 0 2 1 1 0 1
Nghost:        418.875 ave         423 max         414 min
Histogram: 1 0 0 1 2 1 1 0 1 1
Neighs:        10778.9 ave       19380 max        2575 min
Histogram: 2 0 0 2 0 0 2 0 0 2

Total # of neighbors = 86231
Ave neighs/atom = 124.43146
Ave special neighs/atom = 17.064935
Neighbor list builds = 0
Dangerous builds = 0
fix mysf2 cnt_bot setforce 0.0 0.0 0.0
run 100
Generated 0 of 0 mixed pair_coeff terms from geometric mixing rule
Per MPI rank memory allocation (min/avg/max) = 14.07 | 14.07 | 14.07 Mbytes
   Step          Temp          TotEng         v_Lcnt    
     20300   287.52234      21304.261      67.59146     
     20400   278.51877      21462.597      67.651077    
Loop time of 0.0279787 on 8 procs for 100 steps with 693 atoms

Performance: 30.881 ns/day, 0.777 hours/ns, 3574.142 timesteps/s, 2.477 Matom-step/s
100.0% CPU use with 8 MPI tasks x 1 OpenMP threads

MPI task timing breakdown:
Section |  min time  |  avg time  |  max time  |%varavg| %total
---------------------------------------------------------------
Pair    | 0.0020693  | 0.008481   | 0.015293   |   5.1 | 30.31
Bond    | 0.0086048  | 0.00994    | 0.010685   |   0.6 | 35.53
Neigh   | 0          | 0          | 0          |   0.0 |  0.00
Comm    | 0.0011797  | 0.0082835  | 0.014671   |   5.0 | 29.61
Output  | 0.00014012 | 0.00015962 | 0.00017915 |   0.0 |  0.57
Modify  | 0.00070082 | 0.00085467 | 0.00109    |   0.0 |  3.05
Other   |            | 0.00026    |            |       |  0.93

Nlocal:         86.625 ave          91 max          83 min
Histogram: 2 1 0 0 0 0 4 0 0 1
Nghost:        418.375 ave         422 max         414 min
Histogram: 1 0 0 4 0 0 0 0 1 2
Neighs:        10775.6 ave       19547 max        2570 min
Histogram: 2 0 0 2 0 0 2 0 0 2

Total # of neighbors = 86205
Ave neighs/atom = 124.39394
Ave special neighs/atom = 17.064935
Neighbor list builds = 0
Dangerous builds = 0
unfix mysf2
# Optionally, add a short NVT equilibration
fix mynvt2 cnt_bot nvt temp 300 300 500
run 200
Generated 0 of 0 mixed pair_coeff terms from geometric mixing rule
WARNING: One or more atoms are time integrated more than once (src/src/modify.cpp:296)
Per MPI rank memory allocation (min/avg/max) = 14.07 | 14.07 | 14.07 Mbytes
   Step          Temp          TotEng         v_Lcnt    
     20400   278.51877      21462.597      67.651077    
     20500   621.86494      21545.632      66.937027    
     20600   792.30288      21602.749      66.632572    
Loop time of 0.0564183 on 8 procs for 200 steps with 693 atoms

Performance: 30.628 ns/day, 0.784 hours/ns, 3544.952 timesteps/s, 2.457 Matom-step/s
100.0% CPU use with 8 MPI tasks x 1 OpenMP threads

MPI task timing breakdown:
Section |  min time  |  avg time  |  max time  |%varavg| %total
---------------------------------------------------------------
Pair    | 0.0040505  | 0.016969   | 0.030398   |   7.2 | 30.08
Bond    | 0.0173     | 0.019896   | 0.021262   |   0.8 | 35.27
Neigh   | 0.0004258  | 0.00042902 | 0.00043209 |   0.0 |  0.76
Comm    | 0.0023263  | 0.016307   | 0.028392   |   7.1 | 28.90
Output  | 0.00027829 | 0.00031625 | 0.00035553 |   0.0 |  0.56
Modify  | 0.0016795  | 0.0019928  | 0.002459   |   0.5 |  3.53
Other   |            | 0.0005086  |            |       |  0.90

Nlocal:         86.625 ave          90 max          84 min
Histogram: 1 2 0 1 0 1 2 0 0 1
Nghost:        417.875 ave         421 max         414 min
Histogram: 1 0 0 0 2 2 0 2 0 1
Neighs:        10799.5 ave       19573 max        2505 min
Histogram: 2 0 0 2 0 0 2 0 0 2

Total # of neighbors = 86396
Ave neighs/atom = 124.66955
Ave special neighs/atom = 17.064935
Neighbor list builds = 1
Dangerous builds = 0
unfix mynvt2

# Optional: minimize or equilibrate
minimize 1.0e-4 1.0e-6 100 1000
Generated 0 of 0 mixed pair_coeff terms from geometric mixing rule
Per MPI rank memory allocation (min/avg/max) = 15.2 | 15.2 | 15.2 Mbytes
   Step          Temp          TotEng         v_Lcnt    
     20600   792.30288      21602.749      66.632572    
     20700   792.30288      8845.2882      60.882125    
Loop time of 0.0790275 on 8 procs for 100 steps with 693 atoms

100.0% CPU use with 8 MPI tasks x 1 OpenMP threads

Minimization stats:
  Stopping criterion = max iterations
  Energy initial, next-to-last, final = 
      19968.4492534547    7321.5660902091   7210.98879347427
  Force two-norm initial, final = 1505.782 500.38349
  Force max component initial, final = 231.61742 52.145344
  Final line search alpha, max atom move = 0.0010323953 0.053834605
  Iterations, force evaluations = 100 145

MPI task timing breakdown:
Section |  min time  |  avg time  |  max time  |%varavg| %total
---------------------------------------------------------------
Pair    | 0.0075219  | 0.030569   | 0.054274   |   9.6 | 38.68
Bond    | 0.01598    | 0.017662   | 0.019448   |   0.8 | 22.35
Neigh   | 0.0029586  | 0.002979   | 0.0029939  |   0.0 |  3.77
Comm    | 0.0026402  | 0.026102   | 0.047819   |  10.1 | 33.03
Output  | 0.00019487 | 0.00022205 | 0.00024302 |   0.0 |  0.28
Modify  | 2.1681e-05 | 2.4736e-05 | 2.6786e-05 |   0.0 |  0.03
Other   |            | 0.001468   |            |       |  1.86

Nlocal:         86.625 ave          97 max          79 min
Histogram: 1 3 0 0 0 1 0 2 0 1
Nghost:        437.875 ave         466 max         413 min
Histogram: 4 0 0 0 0 0 0 0 1 3
Neighs:        11823.1 ave       21276 max        2971 min
Histogram: 2 0 0 2 0 0 2 0 0 2

Total # of neighbors = 94585
Ave neighs/atom = 136.48629
Ave special neighs/atom = 17.064935
Neighbor list builds = 6
Dangerous builds = 0
# or
# fix mynvt2 cnt_bot nvt temp 300 300 100
# run 2000
# unfix mynvt2

run 10000
Generated 0 of 0 mixed pair_coeff terms from geometric mixing rule
Per MPI rank memory allocation (min/avg/max) = 14.07 | 14.07 | 14.07 Mbytes
   Step          Temp          TotEng         v_Lcnt    
     20700   792.30288      8845.2882      60.882125    
     20800   561.61884      8874.8783      60.593674    
     20900   532.39992      8916.1052      60.265215    
     21000   532.17416      8957.823       60.106311    
     21100   618.97327      8987.0997      60.144866    
     21200   716.60644      9002.9436      60.139402    
     21300   795.06714      9004.8769      60.063428    
     21400   870.41599      8987.832       59.999672    
     21500   923.33894      8956.4569      59.849718    
     21600   1013.1971      8903.0815      59.806681    
     21700   1064.1439      8824.8214      59.755417    
     21800   1125.6949      8727.8107      59.650717    
     21900   1181.0674      8612.1564      59.497137    
     22000   1220.6961      8478.8531      59.340167    
     22100   1268.2244      8322.0711      59.216381    
     22200   1293.6802      8144.0831      59.139786    
     22300   1298.7579      7952.2571      59.026367    
     22400   1309.9508      7750.2328      58.88277     
     22500   1316.3485      7540.8241      58.713271    
     22600   1306.9603      7323.5205      58.562472    
     22700   1293.2777      7103.6258      58.402243    
     22800   1267.3475      6883.4308      58.261228    
     22900   1232.8376      6665.8469      58.093349    
     23000   1212.2579      6450.804       57.941177    
     23100   1175.4092      6240.9928      57.777638    
     23200   1140.4098      6031.1111      57.64364     
     23300   1095.1461      5821.6784      57.51138     
     23400   1032.5731      5614.5372      57.388481    
     23500   970.92728      5415.4163      57.259432    
     23600   929.02498      5228.8803      57.102852    
     23700   894.78915      5055.5635      56.940489    
     23800   857.12255      4895.0793      56.792548    
     23900   808.20336      4748.6704      56.664587    
     24000   769.56739      4618.8174      56.546532    
     24100   745.01236      4498.8456      56.421081    
     24200   718.9839       4376.6295      56.29439     
     24300   687.2958       4258.3301      56.15242     
     24400   651.54776      4149.6162      56.014378    
     24500   612.65645      4046.2095      55.880465    
     24600   575.50488      3952.2196      55.758432    
     24700   544.23376      3873.6474      55.645323    
     24800   517.24814      3804.1044      55.523133    
     24900   486.36832      3739.4118      55.402735    
     25000   462.25675      3686.3542      55.294676    
     25100   444.54248      3639.2634      55.199195    
     25200   425.52906      3594.4429      55.102615    
     25300   405.6234       3553.123       55.006278    
     25400   385.22842      3512.4932      54.916034    
     25500   365.44763      3472.4423      54.827397    
     25600   346.66853      3432.487       54.748648    
     25700   321.56727      3393.1621      54.679481    
     25800   300.68893      3357.8042      54.608895    
     25900   280.69447      3326.4856      54.538458    
     26000   262.98703      3299.1028      54.482371    
     26100   254.44309      3274.2897      54.439763    
     26200   244.12452      3250.7585      54.410496    
     26300   236.05121      3231.2799      54.41084     
     26400   223.56534      3211.7356      54.414888    
     26500   210.36012      3197.7456      54.411095    
     26600   202.12405      3185.3661      54.403992    
     26700   193.07283      3174.9165      54.37893     
     26800   187.63628      3170.1848      54.345842    
     26900   177.37496      3164.9279      54.319751    
     27000   169.0217       3162.9137      54.318284    
     27100   162.88125      3160.1853      54.332319    
     27200   155.54999      3155.8525      54.354546    
     27300   151.38309      3153.6222      54.38801     
     27400   141.94128      3150.4578      54.409067    
     27500   135.78612      3149.0382      54.408438    
     27600   128.04625      3147.5729      54.387778    
     27700   128.67672      3146.7531      54.352191    
     27800   127.66682      3145.6099      54.308943    
     27900   125.63463      3144.4653      54.266956    
     28000   119.28861      3143.1414      54.218522    
     28100   117.91476      3139.4695      54.167568    
     28200   116.43062      3135.3438      54.126116    
     28300   109.64395      3131.9955      54.088594    
     28400   104.32631      3128.0827      54.067659    
     28500   99.294271      3123.3211      54.07956     
     28600   101.0617       3120.6901      54.092572    
     28700   102.29265      3118.5432      54.082933    
     28800   103.90469      3117.4874      54.064362    
     28900   104.07486      3119.6957      54.051602    
     29000   101.37073      3125.5394      54.048385    
     29100   103.30077      3133.3873      54.071076    
     29200   107.16525      3141.4993      54.108844    
     29300   107.88032      3150.8782      54.131354    
     29400   102.17132      3158.7429      54.153405    
     29500   96.204644      3162.4222      54.172275    
     29600   98.651449      3167.8817      54.193285    
     29700   108.63059      3175.0987      54.224095    
     29800   121.39655      3188.685       54.257867    
     29900   133.80484      3207.7482      54.290549    
     30000   148.71824      3230.3736      54.333193    
     30100   158.91227      3255.0496      54.384337    
     30200   181.32923      3276.5414      54.43721     
     30300   194.84806      3297.5442      54.491295    
     30400   193.35908      3310.7212      54.529015    
     30500   195.18295      3320.0018      54.549123    
     30600   197.90279      3327.0502      54.593427    
     30700   202.76357      3333.9181      54.650467    
Loop time of 3.55869 on 8 procs for 10000 steps with 693 atoms

Performance: 24.279 ns/day, 0.989 hours/ns, 2810.024 timesteps/s, 1.947 Matom-step/s
99.9% CPU use with 8 MPI tasks x 1 OpenMP threads

MPI task timing breakdown:
Section |  min time  |  avg time  |  max time  |%varavg| %total
---------------------------------------------------------------
Pair    | 0.22422    | 0.97178    | 2.1199     |  60.4 | 27.31
Bond    | 0.74235    | 0.99125    | 1.33       |  24.7 | 27.85
Neigh   | 0.007085   | 0.0077194  | 0.0083551  |   0.7 |  0.22
Comm    | 0.16374    | 1.4569     | 2.4241     |  57.6 | 40.94
Output  | 0.017081   | 0.019025   | 0.021174   |   1.0 |  0.53
Modify  | 0.073402   | 0.088113   | 0.11325    |   3.9 |  2.48
Other   |            | 0.02388    |            |       |  0.67

Nlocal:         86.625 ave         118 max          56 min
Histogram: 4 0 0 0 0 0 0 0 0 4
Nghost:        462.375 ave         555 max         371 min
Histogram: 4 0 0 0 0 0 0 0 0 4
Neighs:        13066.6 ave       31458 max        2505 min
Histogram: 2 1 1 1 1 0 1 0 0 1

Total # of neighbors = 104533
Ave neighs/atom = 150.84127
Ave special neighs/atom = 17.064935
Neighbor list builds = 13
Dangerous builds = 0
Total wall time: 0:00:10
