
# --- Temperature CSV output for complete simulation ---
variable temp_all equal temp
fix temp_output all print 1 "$(step),${temp_all}" file temperature.csv screen no title "Step,Temperature"


# --- Use a consistent thermo_style for all runs ---
thermo_style custom step temp etotal v_Lcnt
thermo 100  # or 10 or 1 for higher resolution

compute Tmid cnt_mid temp
thermo 300
thermo_style custom step temp etotal v_Lcnt
thermo_modify temp Tmid line yaml
WARNING: Temperature for thermo pressure is not for group all (src/src/thermo.cpp:533)

timestep 0.1
run 300

CITE-CITE-CITE-CITE-CITE-CITE-CITE-CITE-CITE-CITE-CITE-CITE-CITE

Your simulation uses code contributions which should be cited:

- Type Label Framework: https://doi.org/10.1021/acs.jpcb.3c08419

@Article{Gissinger24,
 author = {Jacob R. Gissinger, Ilia Nikiforov, Yaser Afshar, Brendon Waters, Moon-ki Choi, Daniel S. Karls, Alexander Stukowski, Wonpil Im, Hendrik Heinz, Axel Kohlmeyer, and Ellad B. Tadmor},
 title = {Type Label Framework for Bonded Force Fields in LAMMPS},
 journal = {J. Phys. Chem. B},
 year =    2024,
 volume =  128,
 number =  13,
 pages =   {3282–-3297}
}

CITE-CITE-CITE-CITE-CITE-CITE-CITE-CITE-CITE-CITE-CITE-CITE-CITE

Generated 0 of 0 mixed pair_coeff terms from geometric mixing rule
Per MPI rank memory allocation (min/avg/max) = 12.82 | 12.82 | 12.82 Mbytes
---
keywords: ['Step', 'Temp', 'TotEng', 'v_Lcnt', ]
data:
  - [0, 300, 3393.22803180669, 55.472, ]
  - [300, 199.346725250127, 3404.33837260304, 55.472, ]
...
Loop time of 0.139698 on 8 procs for 300 steps with 693 atoms

Performance: 18.554 ns/day, 1.293 hours/ns, 2147.490 timesteps/s, 1.488 Matom-step/s
98.0% CPU use with 8 MPI tasks x 1 OpenMP threads

MPI task timing breakdown:
Section |  min time  |  avg time  |  max time  |%varavg| %total
---------------------------------------------------------------
Pair    | 0.0071032  | 0.042327   | 0.073367   |  11.2 | 30.30
Bond    | 0.025228   | 0.03848    | 0.05338    |   4.2 | 27.55
Neigh   | 0          | 0          | 0          |   0.0 |  0.00
Comm    | 0.0067415  | 0.052568   | 0.095338   |  12.0 | 37.63
Output  | 0.00067702 | 0.00076163 | 0.00083987 |   0.0 |  0.55
Modify  | 0.0032643  | 0.0041105  | 0.0052806  |   0.8 |  2.94
Other   |            | 0.001451   |            |       |  1.04

Nlocal:         86.625 ave          91 max          82 min
Histogram: 1 0 2 0 1 0 1 2 0 1
Nghost:        457.375 ave         462 max         453 min
Histogram: 1 0 2 1 0 1 0 2 0 1
Neighs:        12749.6 ave       22701 max        3000 min
Histogram: 2 0 0 2 0 0 2 0 0 2

Total # of neighbors = 101997
Ave neighs/atom = 147.18182
Ave special neighs/atom = 17.064935
Neighbor list builds = 0
Dangerous builds = 0

velocity cnt_top set 0.003 0 0
velocity cnt_bot set -0.003 0 0

run ${LEFT_FORCE_DURATION}
run 20000
Generated 0 of 0 mixed pair_coeff terms from geometric mixing rule
Per MPI rank memory allocation (min/avg/max) = 14.07 | 14.07 | 14.07 Mbytes
---
keywords: ['Step', 'Temp', 'TotEng', 'v_Lcnt', ]
data:
  - [300, 199.346725250127, 3404.33837260304, 55.472, ]
  - [600, 213.179548582728, 3470.43302538284, 55.6519999999996, ]
  - [900, 240.03562650252, 3551.76682763976, 55.8319999999992, ]
  - [1200, 253.688700718513, 3615.39301645208, 56.0119999999987, ]
  - [1500, 247.878478015824, 3685.09629372306, 56.1919999999983, ]
  - [1800, 286.565700367614, 3765.66904321848, 56.3719999999979, ]
  - [2100, 273.759327772495, 3833.54120422832, 56.5519999999975, ]
  - [2400, 259.901934316027, 3902.42070127528, 56.7319999999971, ]
  - [2700, 268.948758355307, 3965.97815659145, 56.9119999999966, ]
  - [3000, 244.576392747319, 4026.80155146742, 57.0919999999962, ]
  - [3300, 261.718810051252, 4130.0804850155, 57.2719999999958, ]
  - [3600, 265.631605192827, 4277.07575602813, 57.4519999999954, ]
  - [3900, 285.858418999786, 4428.46563760015, 57.631999999995, ]
  - [4200, 302.201184995935, 4564.95369142208, 57.8119999999946, ]
  - [4500, 330.052332406554, 4724.35859180276, 57.9919999999941, ]
  - [4800, 337.14777886285, 4860.7695022003, 58.1719999999937, ]
  - [5100, 317.523038766182, 4952.47416700664, 58.3519999999933, ]
  - [5400, 294.308960570333, 5049.44407337352, 58.5319999999929, ]
  - [5700, 284.403858373911, 5142.55926833555, 58.7119999999924, ]
  - [6000, 279.525489325076, 5260.26035255573, 58.891999999992, ]
  - [6300, 281.892469788407, 5413.24345193099, 59.0719999999916, ]
  - [6600, 293.08633244593, 5596.01991852986, 59.2519999999912, ]
  - [6900, 280.317629833628, 5785.32858196658, 59.4319999999908, ]
  - [7200, 315.927821961055, 6006.34767781743, 59.6119999999904, ]
  - [7500, 335.330826821506, 6241.45246495946, 59.7919999999899, ]
  - [7800, 352.023359154398, 6438.34210795638, 59.9719999999895, ]
  - [8100, 314.470413881403, 6592.95852811343, 60.1519999999891, ]
  - [8400, 287.387761342149, 6764.72947485298, 60.3319999999887, ]
  - [8700, 289.139132012909, 6951.02856368228, 60.5119999999883, ]
  - [9000, 279.40232410253, 7140.51393654558, 60.6919999999878, ]
  - [9300, 278.373038611577, 7369.67689448585, 60.8719999999874, ]
  - [9600, 289.309400622628, 7621.3644351526, 61.051999999987, ]
  - [9900, 296.396757615803, 7895.20014012636, 61.2319999999866, ]
  - [10200, 307.330091628031, 8203.3419380119, 61.4119999999862, ]
  - [10500, 335.299388343889, 8497.97272931508, 61.5919999999857, ]
  - [10800, 334.633053252558, 8764.08602515282, 61.7719999999853, ]
  - [11100, 323.209743629056, 9013.32993001228, 61.9519999999849, ]
  - [11400, 305.506550905012, 9264.67227576368, 62.1319999999845, ]
  - [11700, 280.115883666968, 9512.39667272073, 62.3119999999841, ]
  - [12000, 279.52424408006, 9771.10262605235, 62.4919999999836, ]
  - [12300, 285.288744961893, 10079.2161881625, 62.6719999999832, ]
  - [12600, 284.247435108356, 10416.0625842899, 62.8519999999828, ]
  - [12900, 291.897049923935, 10766.5952467527, 63.0319999999824, ]
  - [13200, 303.586975146118, 11128.9905005938, 63.211999999982, ]
  - [13500, 339.420980790612, 11489.8441899159, 63.3919999999815, ]
  - [13800, 340.931704807424, 11834.4592203886, 63.5719999999811, ]
  - [14100, 323.929014720731, 12168.2240233576, 63.7519999999808, ]
  - [14400, 298.381336529576, 12483.4253726512, 63.9319999999815, ]
  - [14700, 288.383590758445, 12798.1119697131, 64.1119999999821, ]
  - [15000, 275.346872663543, 13148.7317668577, 64.2919999999829, ]
  - [15300, 299.818621342955, 13539.9418981109, 64.4719999999846, ]
  - [15600, 283.134718902331, 13940.3174725786, 64.6519999999863, ]
  - [15900, 299.721292264545, 14358.3686603589, 64.831999999988, ]
  - [16200, 302.743080874547, 14803.0624847986, 65.0119999999897, ]
  - [16500, 334.351686695088, 15235.6610050827, 65.1919999999915, ]
  - [16800, 330.420431102823, 15647.8084469806, 65.3719999999932, ]
  - [17100, 306.981727655215, 16052.6117542744, 65.5519999999949, ]
  - [17400, 302.386097587431, 16434.6267641071, 65.7319999999966, ]
  - [17700, 276.510645729635, 16840.311860993, 65.9119999999983, ]
  - [18000, 287.461946364926, 17274.8404436851, 66.092, ]
  - [18300, 282.23051672897, 17724.7760217555, 66.2720000000017, ]
  - [18600, 279.960867996904, 18195.3363639541, 66.4520000000035, ]
  - [18900, 305.050379279353, 18703.9909530812, 66.6320000000051, ]
  - [19200, 315.720029415757, 19222.8860219672, 66.8120000000069, ]
  - [19500, 336.076626810072, 19719.6849391334, 66.9920000000086, ]
  - [19800, 329.604732503847, 20197.8809639213, 67.1720000000103, ]
  - [20100, 315.518141357665, 20675.7326049199, 67.352000000012, ]
  - [20300, 302.784701844446, 20979.6522223626, 67.4720000000131, ]
...
Loop time of 5.93236 on 8 procs for 20000 steps with 693 atoms

Performance: 29.128 ns/day, 0.824 hours/ns, 3371.342 timesteps/s, 2.336 Matom-step/s
99.9% CPU use with 8 MPI tasks x 1 OpenMP threads

MPI task timing breakdown:
Section |  min time  |  avg time  |  max time  |%varavg| %total
---------------------------------------------------------------
Pair    | 0.41816    | 1.8707     | 3.2971     |  74.8 | 31.53
Bond    | 1.7395     | 2.0062     | 2.1628     |   8.5 | 33.82
Neigh   | 0.0033025  | 0.0033315  | 0.0033615  |   0.0 |  0.06
Comm    | 0.34878    | 1.7963     | 3.233      |  73.5 | 30.28
Output  | 0.023947   | 0.02764    | 0.030973   |   1.4 |  0.47
Modify  | 0.13907    | 0.17058    | 0.22521    |   5.8 |  2.88
Other   |            | 0.05759    |            |       |  0.97

Nlocal:         86.625 ave          89 max          83 min
Histogram: 1 1 0 0 0 0 3 0 2 1
Nghost:        421.375 ave         425 max         419 min
Histogram: 1 2 0 3 0 0 0 0 1 1
Neighs:        10842.4 ave       19503 max        2324 min
Histogram: 2 0 0 2 0 0 2 0 0 2

Total # of neighbors = 86739
Ave neighs/atom = 125.1645
Ave special neighs/atom = 17.064935
Neighbor list builds = 7
Dangerous builds = 0

# Remove force constraint from cnt_bot to let it jiggle
unfix mysf2

# Redefine Fcnt to avoid referencing mysf2, or skip outputting v_Fcnt
thermo_style custom step temp etotal v_Lcnt
WARNING: New thermo_style command, previous thermo_modify settings will be lost (src/src/output.cpp:904)
thermo 100

# Gradually release force constraint on cnt_bot
fix mysf2 cnt_bot setforce 0.1 0.0 0.0
run 300
Generated 0 of 0 mixed pair_coeff terms from geometric mixing rule
Per MPI rank memory allocation (min/avg/max) = 14.07 | 14.07 | 14.07 Mbytes
   Step          Temp          TotEng         v_Lcnt    
     20300   295.2862       20982.236      67.472       
     20400   286.84214      21137.596      67.531826    
     20500   275.30705      21298.838      67.591303    
     20600   278.49163      21458.503      67.650432    
Loop time of 0.0840654 on 8 procs for 300 steps with 693 atoms

Performance: 30.833 ns/day, 0.778 hours/ns, 3568.651 timesteps/s, 2.473 Matom-step/s
99.9% CPU use with 8 MPI tasks x 1 OpenMP threads

MPI task timing breakdown:
Section |  min time  |  avg time  |  max time  |%varavg| %total
---------------------------------------------------------------
Pair    | 0.0059509  | 0.025682   | 0.046089   |   8.9 | 30.55
Bond    | 0.025674   | 0.02992    | 0.032047   |   1.0 | 35.59
Neigh   | 0          | 0          | 0          |   0.0 |  0.00
Comm    | 0.0034679  | 0.024777   | 0.043937   |   8.8 | 29.47
Output  | 0.00042629 | 0.00048212 | 0.00053345 |   0.0 |  0.57
Modify  | 0.0020422  | 0.0024875  | 0.003164   |   0.6 |  2.96
Other   |            | 0.0007166  |            |       |  0.85

Nlocal:         86.625 ave          89 max          83 min
Histogram: 1 1 0 0 0 1 1 0 3 1
Nghost:        419.375 ave         423 max         417 min
Histogram: 1 3 0 1 0 1 0 0 1 1
Neighs:        10789.4 ave       19571 max        2443 min
Histogram: 2 0 0 2 0 0 2 0 0 2

Total # of neighbors = 86315
Ave neighs/atom = 124.55267
Ave special neighs/atom = 17.064935
Neighbor list builds = 0
Dangerous builds = 0
fix mysf2 cnt_bot setforce 0.01 0.0 0.0
run 300
Generated 0 of 0 mixed pair_coeff terms from geometric mixing rule
Per MPI rank memory allocation (min/avg/max) = 14.07 | 14.07 | 14.07 Mbytes
   Step          Temp          TotEng         v_Lcnt    
     20600   278.49163      21458.503      67.650432    
     20700   267.59034      21620.977      67.70937     
     20800   290.37791      21785.243      67.768273    
     20900   280.57655      21950.442      67.82714     
Loop time of 0.083259 on 8 procs for 300 steps with 693 atoms

Performance: 31.132 ns/day, 0.771 hours/ns, 3603.213 timesteps/s, 2.497 Matom-step/s
100.0% CPU use with 8 MPI tasks x 1 OpenMP threads

MPI task timing breakdown:
Section |  min time  |  avg time  |  max time  |%varavg| %total
---------------------------------------------------------------
Pair    | 0.0062284  | 0.02563    | 0.045528   |   8.8 | 30.78
Bond    | 0.026257   | 0.029896   | 0.031658   |   0.9 | 35.91
Neigh   | 0          | 0          | 0          |   0.0 |  0.00
Comm    | 0.0034164  | 0.02408    | 0.042118   |   8.7 | 28.92
Output  | 0.00042882 | 0.00048714 | 0.00053387 |   0.0 |  0.59
Modify  | 0.0020322  | 0.0024583  | 0.003117   |   0.6 |  2.95
Other   |            | 0.0007084  |            |       |  0.85

Nlocal:         86.625 ave          91 max          84 min
Histogram: 1 2 2 0 1 0 0 1 0 1
Nghost:        417.875 ave         420 max         413 min
Histogram: 1 0 0 0 1 0 0 2 2 2
Neighs:        10784.6 ave       19381 max        2566 min
Histogram: 2 0 0 2 0 0 2 0 0 2

Total # of neighbors = 86277
Ave neighs/atom = 124.49784
Ave special neighs/atom = 17.064935
Neighbor list builds = 0
Dangerous builds = 0
fix mysf2 cnt_bot setforce 0.0 0.0 0.0
run 300
Generated 0 of 0 mixed pair_coeff terms from geometric mixing rule
Per MPI rank memory allocation (min/avg/max) = 14.07 | 14.07 | 14.07 Mbytes
   Step          Temp          TotEng         v_Lcnt    
     20900   280.57655      21950.442      67.82714     
     21000   270.41656      22115.777      67.885991    
     21100   270.34748      22284.915      67.944841    
     21200   280.80938      22454.438      68.003692    
Loop time of 0.0826548 on 8 procs for 300 steps with 693 atoms

Performance: 31.359 ns/day, 0.765 hours/ns, 3629.555 timesteps/s, 2.515 Matom-step/s
100.0% CPU use with 8 MPI tasks x 1 OpenMP threads

MPI task timing breakdown:
Section |  min time  |  avg time  |  max time  |%varavg| %total
---------------------------------------------------------------
Pair    | 0.0059642  | 0.025587   | 0.045384   |   8.9 | 30.96
Bond    | 0.026297   | 0.029957   | 0.03157    |   0.9 | 36.24
Neigh   | 0          | 0          | 0          |   0.0 |  0.00
Comm    | 0.0034233  | 0.023454   | 0.042535   |   8.9 | 28.38
Output  | 0.00042589 | 0.00048528 | 0.00053571 |   0.0 |  0.59
Modify  | 0.00205    | 0.00247    | 0.003117   |   0.6 |  2.99
Other   |            | 0.0007022  |            |       |  0.85

Nlocal:         86.625 ave          89 max          85 min
Histogram: 2 0 3 0 0 1 0 0 0 2
Nghost:        417.875 ave         420 max         415 min
Histogram: 1 0 1 0 1 0 1 0 3 1
Neighs:        10767.1 ave       19339 max        2470 min
Histogram: 2 0 0 2 0 0 2 0 0 2

Total # of neighbors = 86137
Ave neighs/atom = 124.29582
Ave special neighs/atom = 17.064935
Neighbor list builds = 0
Dangerous builds = 0
unfix mysf2
# Optionally, add a short NVT equilibration
fix mynvt2 cnt_bot nvt temp 300 300 500
run 300
Generated 0 of 0 mixed pair_coeff terms from geometric mixing rule
WARNING: One or more atoms are time integrated more than once (src/src/modify.cpp:296)
Per MPI rank memory allocation (min/avg/max) = 14.07 | 14.07 | 14.07 Mbytes
   Step          Temp          TotEng         v_Lcnt    
     21200   280.80938      22454.438      68.003692    
     21300   704.2741       22545.718      67.213561    
     21400   913.85707      22609.701      66.861876    
     21500   1255.3343      22607.477      66.578796    
Loop time of 0.0829803 on 8 procs for 300 steps with 693 atoms

Performance: 31.236 ns/day, 0.768 hours/ns, 3615.315 timesteps/s, 2.505 Matom-step/s
100.0% CPU use with 8 MPI tasks x 1 OpenMP threads

MPI task timing breakdown:
Section |  min time  |  avg time  |  max time  |%varavg| %total
---------------------------------------------------------------
Pair    | 0.0062229  | 0.025643   | 0.044947   |   8.8 | 30.90
Bond    | 0.026286   | 0.02992    | 0.031697   |   0.9 | 36.06
Neigh   | 0.00039869 | 0.00040214 | 0.00040614 |   0.0 |  0.48
Comm    | 0.0034615  | 0.022865   | 0.041567   |   8.9 | 27.55
Output  | 0.00042529 | 0.0004788  | 0.00052615 |   0.0 |  0.58
Modify  | 0.0025461  | 0.0029576  | 0.0036097  |   0.5 |  3.56
Other   |            | 0.0007142  |            |       |  0.86

Nlocal:         86.625 ave          91 max          84 min
Histogram: 2 2 1 0 1 0 0 0 0 2
Nghost:        418.875 ave         423 max         413 min
Histogram: 1 0 0 1 1 0 1 1 1 2
Neighs:        10766.9 ave       18988 max        2564 min
Histogram: 2 0 0 2 0 0 1 1 0 2

Total # of neighbors = 86135
Ave neighs/atom = 124.29293
Ave special neighs/atom = 17.064935
Neighbor list builds = 1
Dangerous builds = 0
unfix mynvt2

# Optional: minimize or equilibrate
minimize 1.0e-4 1.0e-6 100 1000
Generated 0 of 0 mixed pair_coeff terms from geometric mixing rule
Per MPI rank memory allocation (min/avg/max) = 15.2 | 15.2 | 15.2 Mbytes
   Step          Temp          TotEng         v_Lcnt    
     21500   1255.3343      22607.477      66.578796    
     21600   1255.3343      9992.8979      60.989957    
Loop time of 0.0800963 on 8 procs for 100 steps with 693 atoms

100.0% CPU use with 8 MPI tasks x 1 OpenMP threads

Minimization stats:
  Stopping criterion = max iterations
  Energy initial, next-to-last, final = 
      20018.0734565543   7537.85535864162   7403.49401585031
  Force two-norm initial, final = 1425.5431 455.49695
  Force max component initial, final = 166.75476 53.301094
  Final line search alpha, max atom move = 0.00092754645 0.04943924
  Iterations, force evaluations = 100 148

MPI task timing breakdown:
Section |  min time  |  avg time  |  max time  |%varavg| %total
---------------------------------------------------------------
Pair    | 0.0077439  | 0.031447   | 0.05572    |   9.7 | 39.26
Bond    | 0.016174   | 0.018118   | 0.019725   |   0.8 | 22.62
Neigh   | 0.002416   | 0.0024342  | 0.0024503  |   0.0 |  3.04
Comm    | 0.0023363  | 0.026386   | 0.048827   |  10.3 | 32.94
Output  | 0.00019359 | 0.0002205  | 0.00024094 |   0.0 |  0.28
Modify  | 2.3368e-05 | 2.6856e-05 | 3.2524e-05 |   0.0 |  0.03
Other   |            | 0.001464   |            |       |  1.83

Nlocal:         86.625 ave          96 max          81 min
Histogram: 3 1 0 0 1 0 2 0 0 1
Nghost:        434.875 ave         456 max         416 min
Histogram: 4 0 0 0 0 0 0 0 1 3
Neighs:        11678.1 ave       20655 max        2896 min
Histogram: 2 0 0 2 0 0 2 0 0 2

Total # of neighbors = 93425
Ave neighs/atom = 134.81241
Ave special neighs/atom = 17.064935
Neighbor list builds = 5
Dangerous builds = 0
# or
# fix mynvt2 cnt_bot nvt temp 300 300 100
# run 2000
# unfix mynvt2

run 10000
Generated 0 of 0 mixed pair_coeff terms from geometric mixing rule
Per MPI rank memory allocation (min/avg/max) = 14.07 | 14.07 | 14.07 Mbytes
   Step          Temp          TotEng         v_Lcnt    
     21600   1255.3343      9992.8979      60.989957    
     21700   873.03046      9956.2325      60.969193    
     21800   958.13374      9960.3171      60.588396    
     21900   950.05783      9965.1927      59.980904    
     22000   874.33042      9958.6306      59.62602     
     22100   1005.9104      9918.3765      59.664996    
     22200   1094.1583      9849.3728      59.873419    
     22300   1081.1984      9763.1843      59.861499    
     22400   1171.2234      9661.1142      59.755328    
     22500   1243.2186      9539.1211      59.484272    
     22600   1253.5927      9392.4424      59.355178    
     22700   1307.716       9222.4967      59.289506    
     22800   1367.0837      9027.5443      59.317868    
     22900   1341.4844      8820.3037      59.241147    
     23000   1385.3808      8607.6911      59.113007    
     23100   1403.6494      8381.6658      58.907848    
     23200   1371.6416      8142.3609      58.790375    
     23300   1372.5093      7898.0024      58.676338    
     23400   1369.5707      7644.1795      58.634556    
     23500   1324.838       7394.6382      58.508995    
     23600   1328.8574      7148.4981      58.373329    
     23700   1289.7345      6906.9652      58.147354    
     23800   1244.3548      6672.4682      57.977002    
     23900   1215.1179      6439.4286      57.835884    
     24000   1158.3033      6206.3149      57.76095     
     24100   1097.6927      5983.9503      57.646482    
     24200   1060.0757      5764.5377      57.504986    
     24300   976.66543      5557.0565      57.309505    
     24400   930.29235      5365.8021      57.152048    
     24500   892.13028      5183.8802      57.028766    
     24600   826.42448      5013.625       56.949525    
     24700   794.89873      4856.6004      56.830807    
     24800   757.50031      4711.4736      56.697045    
     24900   713.65873      4585.0129      56.531774    
     25000   709.48774      4465.1219      56.394198    
     25100   692.61517      4346.3024      56.285918    
     25200   652.79294      4235.0791      56.218246    
     25300   632.77625      4129.7291      56.113434    
     25400   589.03131      4028.4695      55.976865    
     25500   540.96058      3941.8121      55.814143    
     25600   522.3659       3865.6053      55.688876    
     25700   491.53813      3797.5843      55.583617    
     25800   460.7568       3741.3548      55.488661    
     25900   451.90933      3694.6437      55.363453    
     26000   430.14707      3651.6898      55.232013    
     26100   409.96213      3613.115       55.104125    
     26200   403.24147      3573.0476      55.02188     
     26300   380.92408      3533.228       54.945235    
     26400   355.84813      3495.9335      54.875402    
     26500   346.12766      3460.2492      54.778713    
     26600   319.52729      3424.3533      54.677074    
     26700   295.76337      3389.9108      54.588386    
     26800   287.87631      3358.9339      54.555675    
     26900   266.7507       3329.4024      54.539525    
     27000   256.85955      3304.0863      54.513217    
     27100   256.64307      3281.4552      54.471557    
     27200   239.61187      3259.8432      54.451877    
     27300   235.04108      3242.2572      54.454416    
     27400   228.63709      3225.4688      54.480962    
     27500   215.73748      3212.9905      54.487055    
     27600   209.81844      3203.0546      54.469596    
     27700   205.64738      3193.9493      54.43792     
     27800   190.21456      3188.6121      54.44101     
     27900   182.42539      3182.5452      54.47124     
     28000   175.06866      3178.7552      54.518376    
     28100   162.40624      3175.6173      54.537279    
     28200   159.056        3172.604       54.53831     
     28300   150.20328      3171.1821      54.529974    
     28400   139.8917       3168.3501      54.541202    
     28500   139.71977      3167.0936      54.550816    
     28600   136.30152      3165.092       54.545372    
     28700   136.33782      3162.582       54.488608    
     28800   138.8112       3162.6628      54.39106     
     28900   133.84563      3162.7575      54.29063     
     29000   132.00026      3162.3285      54.244239    
     29100   130.12295      3162.2698      54.241765    
     29200   127.63173      3160.8707      54.232479    
     29300   122.10511      3158.508       54.188225    
     29400   118.77965      3155.4131      54.136184    
     29500   119.89727      3155.1669      54.104102    
     29600   117.45043      3154.8131      54.117242    
     29700   124.30047      3158.208       54.153983    
     29800   122.67033      3165.9057      54.170831    
     29900   125.44875      3174.9022      54.149883    
     30000   128.81667      3186.0541      54.118694    
     30100   125.65836      3197.0528      54.113979    
     30200   123.35421      3208.3215      54.159501    
     30300   120.25909      3219.9997      54.222721    
     30400   112.07455      3233.8075      54.255275    
     30500   117.13712      3247.4063      54.249988    
     30600   124.02661      3262.8127      54.237659    
     30700   137.69254      3281.6819      54.246894    
     30800   161.14519      3306.8666      54.294522    
     30900   171.47215      3334.2467      54.361246    
     31000   202.12277      3362.0021      54.404962    
     31100   225.47692      3390.6055      54.411739    
     31200   232.2449       3413.6818      54.403627    
     31300   239.55741      3432.4655      54.431977    
     31400   239.06835      3445.4325      54.512872    
     31500   237.12124      3455.0329      54.614416    
     31600   234.57038      3461.0055      54.690979    
Loop time of 3.53471 on 8 procs for 10000 steps with 693 atoms

Performance: 24.443 ns/day, 0.982 hours/ns, 2829.090 timesteps/s, 1.961 Matom-step/s
100.0% CPU use with 8 MPI tasks x 1 OpenMP threads

MPI task timing breakdown:
Section |  min time  |  avg time  |  max time  |%varavg| %total
---------------------------------------------------------------
Pair    | 0.226      | 0.974      | 2.1187     |  60.7 | 27.56
Bond    | 0.72602    | 0.98995    | 1.3247     |  25.5 | 28.01
Neigh   | 0.0072176  | 0.0078691  | 0.0085116  |   0.7 |  0.22
Comm    | 0.14824    | 1.4358     | 2.4029     |  59.0 | 40.62
Output  | 0.016788   | 0.01851    | 0.020403   |   0.9 |  0.52
Modify  | 0.071797   | 0.086577   | 0.11084    |   3.9 |  2.45
Other   |            | 0.022      |            |       |  0.62

Nlocal:         86.625 ave         122 max          55 min
Histogram: 4 0 0 0 0 0 0 0 3 1
Nghost:        460.375 ave         555 max         367 min
Histogram: 4 0 0 0 0 0 0 0 0 4
Neighs:        13066.1 ave       30917 max        2657 min
Histogram: 2 1 1 1 1 0 1 0 0 1

Total # of neighbors = 104529
Ave neighs/atom = 150.8355
Ave special neighs/atom = 17.064935
Neighbor list builds = 13
Dangerous builds = 0
Total wall time: 0:00:10
