
# --- Temperature CSV output for complete simulation ---
variable temp_all equal temp
fix temp_output all print 1 "$(step),${temp_all}" file temperature.csv screen no title "Step,Temperature"


# --- Use a consistent thermo_style for all runs ---
thermo_style custom step temp etotal v_Lcnt
thermo 100  # or 10 or 1 for higher resolution

compute Tmid cnt_mid temp
thermo 300
thermo_style custom step temp etotal v_Lcnt
thermo_modify temp Tmid line yaml
WARNING: Temperature for thermo pressure is not for group all (src/src/thermo.cpp:533)

timestep 0.1
run 100

CITE-CITE-CITE-CITE-CITE-CITE-CITE-CITE-CITE-CITE-CITE-CITE-CITE

Your simulation uses code contributions which should be cited:

- Type Label Framework: https://doi.org/10.1021/acs.jpcb.3c08419

@Article{Gissinger24,
 author = {Jacob R. Gissinger, Ilia Nikiforov, Yaser Afshar, Brendon Waters, Moon-ki Choi, Daniel S. Karls, Alexander Stukowski, Wonpil Im, Hendrik Heinz, Axel Kohlmeyer, and Ellad B. Tadmor},
 title = {Type Label Framework for Bonded Force Fields in LAMMPS},
 journal = {J. Phys. Chem. B},
 year =    2024,
 volume =  128,
 number =  13,
 pages =   {3282–-3297}
}

CITE-CITE-CITE-CITE-CITE-CITE-CITE-CITE-CITE-CITE-CITE-CITE-CITE

Generated 0 of 0 mixed pair_coeff terms from geometric mixing rule
Per MPI rank memory allocation (min/avg/max) = 12.82 | 12.82 | 12.82 Mbytes
---
keywords: ['Step', 'Temp', 'TotEng', 'v_Lcnt', ]
data:
  - [0, 300, 3393.22803180669, 55.472, ]
  - [100, 213.731408727689, 3394.20029810852, 55.472, ]
...
Loop time of 0.0485315 on 8 procs for 100 steps with 693 atoms

Performance: 17.803 ns/day, 1.348 hours/ns, 2060.517 timesteps/s, 1.428 Matom-step/s
99.2% CPU use with 8 MPI tasks x 1 OpenMP threads

MPI task timing breakdown:
Section |  min time  |  avg time  |  max time  |%varavg| %total
---------------------------------------------------------------
Pair    | 0.0023719  | 0.015295   | 0.030761   |   7.9 | 31.52
Bond    | 0.0098539  | 0.012864   | 0.017561   |   2.5 | 26.51
Neigh   | 0          | 0          | 0          |   0.0 |  0.00
Comm    | 0.0019051  | 0.018398   | 0.033719   |   8.8 | 37.91
Output  | 0.00023187 | 0.00025285 | 0.00027482 |   0.0 |  0.52
Modify  | 0.0011199  | 0.0013681  | 0.0016233  |   0.4 |  2.82
Other   |            | 0.0003535  |            |       |  0.73

Nlocal:         86.625 ave          91 max          82 min
Histogram: 1 0 2 0 1 0 1 2 0 1
Nghost:        457.375 ave         462 max         453 min
Histogram: 1 0 2 1 0 1 0 2 0 1
Neighs:        12749.6 ave       22701 max        3000 min
Histogram: 2 0 0 2 0 0 2 0 0 2

Total # of neighbors = 101997
Ave neighs/atom = 147.18182
Ave special neighs/atom = 17.064935
Neighbor list builds = 0
Dangerous builds = 0

velocity cnt_top set 0.003 0 0
velocity cnt_bot set -0.003 0 0

run ${LEFT_FORCE_DURATION}
run 20000
Generated 0 of 0 mixed pair_coeff terms from geometric mixing rule
Per MPI rank memory allocation (min/avg/max) = 14.07 | 14.07 | 14.07 Mbytes
---
keywords: ['Step', 'Temp', 'TotEng', 'v_Lcnt', ]
data:
  - [100, 213.731408727689, 3394.20029810852, 55.472, ]
  - [300, 201.523483685547, 3426.63752587511, 55.5919999999997, ]
  - [600, 222.344405088095, 3505.97560543665, 55.7719999999993, ]
  - [900, 244.296608964892, 3583.43526490467, 55.9519999999989, ]
  - [1200, 260.211655584329, 3646.14533418704, 56.1319999999985, ]
  - [1500, 255.162035000872, 3715.06420479986, 56.311999999998, ]
  - [1800, 280.69876050127, 3794.73756852196, 56.4919999999976, ]
  - [2100, 266.804243011699, 3861.71888103963, 56.6719999999972, ]
  - [2400, 251.627874069042, 3931.27991373397, 56.8519999999968, ]
  - [2700, 263.111346577223, 3995.1945917973, 57.0319999999964, ]
  - [3000, 242.387299378166, 4069.54614383605, 57.211999999996, ]
  - [3300, 263.733952429444, 4197.77932170213, 57.3919999999955, ]
  - [3600, 264.790389550463, 4351.25285543935, 57.5719999999951, ]
  - [3900, 291.481239586844, 4510.34589107695, 57.7519999999947, ]
  - [4200, 314.796181120096, 4656.26842202624, 57.9319999999943, ]
  - [4500, 338.751017938279, 4806.22309780333, 58.1119999999938, ]
  - [4800, 328.129818602336, 4923.32234330805, 58.2919999999934, ]
  - [5100, 299.772757708038, 5008.73248256913, 58.471999999993, ]
  - [5400, 286.767950571989, 5115.34718480272, 58.6519999999926, ]
  - [5700, 278.958949431946, 5221.27500036213, 58.8319999999922, ]
  - [6000, 283.932806634706, 5355.5708348737, 59.0119999999918, ]
  - [6300, 279.464637263385, 5523.71354878793, 59.1919999999913, ]
  - [6600, 289.689742630447, 5717.00542429905, 59.3719999999909, ]
  - [6900, 289.710886411004, 5930.08399980991, 59.5519999999905, ]
  - [7200, 333.448942084633, 6164.97494176022, 59.7319999999901, ]
  - [7500, 345.257368533137, 6385.72759931193, 59.9119999999897, ]
  - [7800, 345.150523037185, 6560.66677919262, 60.0919999999892, ]
  - [8100, 302.323889164588, 6712.13263339345, 60.2719999999888, ]
  - [8400, 281.756412881622, 6892.06848807741, 60.4519999999884, ]
  - [8700, 287.348873794119, 7085.39852625717, 60.631999999988, ]
  - [9000, 276.621976151236, 7290.04591464372, 60.8119999999876, ]
  - [9300, 283.15893905871, 7534.00534419266, 60.9919999999871, ]
  - [9600, 289.570354190353, 7800.34340975993, 61.1719999999867, ]
  - [9900, 310.435827573979, 8091.54413311583, 61.3519999999863, ]
  - [10200, 324.288397073566, 8399.54900075279, 61.5319999999859, ]
  - [10500, 339.158400894883, 8682.31459516049, 61.7119999999855, ]
  - [10800, 331.003904253835, 8940.12458727069, 61.891999999985, ]
  - [11100, 311.128173004881, 9184.96570270661, 62.0719999999846, ]
  - [11400, 298.244684144054, 9432.23893924417, 62.2519999999842, ]
  - [11700, 273.346319643491, 9686.29575226239, 62.4319999999838, ]
  - [12000, 282.337508037461, 9967.50612734739, 62.6119999999834, ]
  - [12300, 288.436914799402, 10295.8114937125, 62.7919999999829, ]
  - [12600, 289.546002110704, 10646.2366158342, 62.9719999999825, ]
  - [12900, 300.790130115924, 11006.2120820347, 63.1519999999821, ]
  - [13200, 317.371068716707, 11367.4413435633, 63.3319999999817, ]
  - [13500, 344.6900205807, 11724.5328701414, 63.5119999999813, ]
  - [13800, 338.929328290944, 12063.7772110224, 63.6919999999808, ]
  - [14100, 313.152758780109, 12387.7026479501, 63.8719999999813, ]
  - [14400, 290.782000568635, 12699.686299139, 64.0519999999819, ]
  - [14700, 285.250117322539, 13027.0484230037, 64.2319999999825, ]
  - [15000, 280.097239113359, 13399.922419734, 64.411999999984, ]
  - [15300, 300.786651095774, 13805.8469401698, 64.5919999999857, ]
  - [15600, 289.235725194622, 14219.0865199633, 64.7719999999875, ]
  - [15900, 307.355555314902, 14647.3580587787, 64.9519999999892, ]
  - [16200, 313.905296838919, 15092.0136223769, 65.1319999999909, ]
  - [16500, 332.917110282256, 15518.4140367741, 65.3119999999926, ]
  - [16800, 323.719978840042, 15921.0015966987, 65.4919999999943, ]
  - [17100, 300.54799196563, 16318.3642384862, 65.671999999996, ]
  - [17400, 291.974068486044, 16706.1239181962, 65.8519999999977, ]
  - [17700, 280.076176230407, 17124.7426500002, 66.0319999999995, ]
  - [18000, 286.252145929113, 17571.7136191253, 66.2120000000012, ]
  - [18300, 282.342582312014, 18036.4069839082, 66.3920000000029, ]
  - [18600, 281.175778483757, 18525.5742051522, 66.5720000000046, ]
  - [18900, 315.417738863106, 19044.2818876481, 66.7520000000063, ]
  - [19200, 321.766896778772, 19558.0955641208, 66.932000000008, ]
  - [19500, 338.277903523819, 20046.2912429433, 67.1120000000097, ]
  - [19800, 324.356533291839, 20517.8378940183, 67.2920000000114, ]
  - [20100, 300.853244086213, 20993.0480313587, 67.4720000000131, ]
...
Loop time of 5.81334 on 8 procs for 20000 steps with 693 atoms

Performance: 29.725 ns/day, 0.807 hours/ns, 3440.360 timesteps/s, 2.384 Matom-step/s
99.9% CPU use with 8 MPI tasks x 1 OpenMP threads

MPI task timing breakdown:
Section |  min time  |  avg time  |  max time  |%varavg| %total
---------------------------------------------------------------
Pair    | 0.41873    | 1.8443     | 3.3004     |  75.1 | 31.73
Bond    | 1.7418     | 1.9903     | 2.151      |   8.2 | 34.24
Neigh   | 0.0031084  | 0.0031459  | 0.0031752  |   0.0 |  0.05
Comm    | 0.24984    | 1.7264     | 3.0978     |  74.6 | 29.70
Output  | 0.023774   | 0.027492   | 0.030842   |   1.4 |  0.47
Modify  | 0.13599    | 0.1675     | 0.21872    |   5.6 |  2.88
Other   |            | 0.05412    |            |       |  0.93

Nlocal:         86.625 ave          89 max          84 min
Histogram: 1 0 1 0 2 0 2 0 0 2
Nghost:        420.875 ave         424 max         418 min
Histogram: 1 1 0 1 0 2 2 0 0 1
Neighs:        10819.4 ave       19442 max        2443 min
Histogram: 2 0 0 2 0 0 2 0 0 2

Total # of neighbors = 86555
Ave neighs/atom = 124.89899
Ave special neighs/atom = 17.064935
Neighbor list builds = 7
Dangerous builds = 0

# Remove force constraint from cnt_bot to let it jiggle
unfix mysf2

# Redefine Fcnt to avoid referencing mysf2, or skip outputting v_Fcnt
thermo_style custom step temp etotal v_Lcnt
WARNING: New thermo_style command, previous thermo_modify settings will be lost (src/src/output.cpp:904)
thermo 100

# Gradually release force constraint on cnt_bot
fix mysf2 cnt_bot setforce 0.1 0.0 0.0
run 300
Generated 0 of 0 mixed pair_coeff terms from geometric mixing rule
Per MPI rank memory allocation (min/avg/max) = 14.07 | 14.07 | 14.07 Mbytes
   Step          Temp          TotEng         v_Lcnt    
     20100   293.41057      20995.632      67.472       
     20200   297.73914      21148.408      67.531826    
     20300   287.50673      21303.813      67.591303    
     20400   278.46835      21460.752      67.650432    
Loop time of 0.0829257 on 8 procs for 300 steps with 693 atoms

Performance: 31.257 ns/day, 0.768 hours/ns, 3617.696 timesteps/s, 2.507 Matom-step/s
100.0% CPU use with 8 MPI tasks x 1 OpenMP threads

MPI task timing breakdown:
Section |  min time  |  avg time  |  max time  |%varavg| %total
---------------------------------------------------------------
Pair    | 0.0058795  | 0.025401   | 0.045418   |   8.8 | 30.63
Bond    | 0.026372   | 0.029786   | 0.031808   |   1.0 | 35.92
Neigh   | 0          | 0          | 0          |   0.0 |  0.00
Comm    | 0.0034156  | 0.024038   | 0.043282   |   8.9 | 28.99
Output  | 0.00042107 | 0.00047361 | 0.00052065 |   0.0 |  0.57
Modify  | 0.0020596  | 0.0024969  | 0.0031742  |   0.6 |  3.01
Other   |            | 0.0007299  |            |       |  0.88

Nlocal:         86.625 ave          89 max          83 min
Histogram: 1 1 0 0 0 1 2 0 1 2
Nghost:        418.875 ave         423 max         416 min
Histogram: 1 1 2 0 2 0 0 1 0 1
Neighs:        10786.2 ave       19394 max        2440 min
Histogram: 2 0 0 2 0 0 2 0 0 2

Total # of neighbors = 86290
Ave neighs/atom = 124.51659
Ave special neighs/atom = 17.064935
Neighbor list builds = 0
Dangerous builds = 0
fix mysf2 cnt_bot setforce 0.01 0.0 0.0
run 300
Generated 0 of 0 mixed pair_coeff terms from geometric mixing rule
Per MPI rank memory allocation (min/avg/max) = 14.07 | 14.07 | 14.07 Mbytes
   Step          Temp          TotEng         v_Lcnt    
     20400   278.46835      21460.752      67.650432    
     20500   274.26354      21622.158      67.70937     
     20600   279.11058      21783.984      67.768273    
     20700   268.9111       21949.54       67.82714     
Loop time of 0.0827756 on 8 procs for 300 steps with 693 atoms

Performance: 31.314 ns/day, 0.766 hours/ns, 3624.255 timesteps/s, 2.512 Matom-step/s
100.0% CPU use with 8 MPI tasks x 1 OpenMP threads

MPI task timing breakdown:
Section |  min time  |  avg time  |  max time  |%varavg| %total
---------------------------------------------------------------
Pair    | 0.0060079  | 0.025395   | 0.045358   |   8.8 | 30.68
Bond    | 0.025925   | 0.029803   | 0.032297   |   1.1 | 36.00
Neigh   | 0          | 0          | 0          |   0.0 |  0.00
Comm    | 0.003382   | 0.023906   | 0.042009   |   8.7 | 28.88
Output  | 0.00042068 | 0.00047972 | 0.00053141 |   0.0 |  0.58
Modify  | 0.0020342  | 0.002476   | 0.0031434  |   0.6 |  2.99
Other   |            | 0.0007162  |            |       |  0.87

Nlocal:         86.625 ave          90 max          85 min
Histogram: 3 0 2 0 1 0 0 0 1 1
Nghost:        417.375 ave         419 max         414 min
Histogram: 1 0 1 0 0 0 1 0 2 3
Neighs:          10773 ave       19364 max        2505 min
Histogram: 2 0 0 2 0 0 2 0 0 2

Total # of neighbors = 86184
Ave neighs/atom = 124.36364
Ave special neighs/atom = 17.064935
Neighbor list builds = 0
Dangerous builds = 0
fix mysf2 cnt_bot setforce 0.0 0.0 0.0
run 300
Generated 0 of 0 mixed pair_coeff terms from geometric mixing rule
Per MPI rank memory allocation (min/avg/max) = 14.07 | 14.07 | 14.07 Mbytes
   Step          Temp          TotEng         v_Lcnt    
     20700   268.9111       21949.54       67.82714     
     20800   290.24721      22116.731      67.885991    
     20900   276.69046      22285.908      67.944841    
     21000   268.10977      22456.049      68.003692    
Loop time of 0.0816 on 8 procs for 300 steps with 693 atoms

Performance: 31.765 ns/day, 0.756 hours/ns, 3676.470 timesteps/s, 2.548 Matom-step/s
100.0% CPU use with 8 MPI tasks x 1 OpenMP threads

MPI task timing breakdown:
Section |  min time  |  avg time  |  max time  |%varavg| %total
---------------------------------------------------------------
Pair    | 0.0061606  | 0.025365   | 0.044732   |   8.8 | 31.08
Bond    | 0.026426   | 0.02983    | 0.032055   |   1.0 | 36.56
Neigh   | 0          | 0          | 0          |   0.0 |  0.00
Comm    | 0.0034064  | 0.022748   | 0.040689   |   8.9 | 27.88
Output  | 0.00040228 | 0.00046196 | 0.00050942 |   0.0 |  0.57
Modify  | 0.0020395  | 0.0024684  | 0.0031299  |   0.6 |  3.02
Other   |            | 0.000727   |            |       |  0.89

Nlocal:         86.625 ave          91 max          84 min
Histogram: 1 2 3 0 0 0 0 0 1 1
Nghost:        417.375 ave         420 max         413 min
Histogram: 1 1 0 0 0 0 0 3 2 1
Neighs:        10768.1 ave       19152 max        2566 min
Histogram: 2 0 0 2 0 0 1 1 0 2

Total # of neighbors = 86145
Ave neighs/atom = 124.30736
Ave special neighs/atom = 17.064935
Neighbor list builds = 0
Dangerous builds = 0
unfix mysf2
# Optionally, add a short NVT equilibration
fix mynvt2 cnt_bot nvt temp 300 300 500
run 300
Generated 0 of 0 mixed pair_coeff terms from geometric mixing rule
WARNING: One or more atoms are time integrated more than once (src/src/modify.cpp:296)
Per MPI rank memory allocation (min/avg/max) = 14.07 | 14.07 | 14.07 Mbytes
   Step          Temp          TotEng         v_Lcnt    
     21000   268.10977      22456.049      68.003692    
     21100   662.77236      22547.215      67.227183    
     21200   922.1001       22610.157      66.907123    
     21300   1235.89        22612.555      66.577918    
Loop time of 0.0827755 on 8 procs for 300 steps with 693 atoms

Performance: 31.314 ns/day, 0.766 hours/ns, 3624.261 timesteps/s, 2.512 Matom-step/s
100.0% CPU use with 8 MPI tasks x 1 OpenMP threads

MPI task timing breakdown:
Section |  min time  |  avg time  |  max time  |%varavg| %total
---------------------------------------------------------------
Pair    | 0.0061331  | 0.025394   | 0.044831   |   8.8 | 30.68
Bond    | 0.0265     | 0.029845   | 0.031957   |   1.0 | 36.06
Neigh   | 0.00040374 | 0.00040698 | 0.00041013 |   0.0 |  0.49
Comm    | 0.0034856  | 0.022977   | 0.041763   |   8.9 | 27.76
Output  | 0.00041199 | 0.00046912 | 0.00052007 |   0.0 |  0.57
Modify  | 0.0025091  | 0.0029481  | 0.0036161  |   0.6 |  3.56
Other   |            | 0.000735   |            |       |  0.89

Nlocal:         86.625 ave          91 max          83 min
Histogram: 1 1 1 2 0 0 1 0 1 1
Nghost:        418.375 ave         422 max         414 min
Histogram: 1 1 0 1 0 0 2 1 1 1
Neighs:        10771.8 ave       19212 max        2563 min
Histogram: 2 0 0 2 0 0 1 1 0 2

Total # of neighbors = 86174
Ave neighs/atom = 124.34921
Ave special neighs/atom = 17.064935
Neighbor list builds = 1
Dangerous builds = 0
unfix mynvt2

# Optional: minimize or equilibrate
minimize 1.0e-4 1.0e-6 100 1000
Generated 0 of 0 mixed pair_coeff terms from geometric mixing rule
Per MPI rank memory allocation (min/avg/max) = 15.2 | 15.2 | 15.2 Mbytes
   Step          Temp          TotEng         v_Lcnt    
     21300   1235.89        22612.555      66.577918    
     21400   1235.89        10282.307      61.187632    
Loop time of 0.0815885 on 8 procs for 100 steps with 693 atoms

100.0% CPU use with 8 MPI tasks x 1 OpenMP threads

Minimization stats:
  Stopping criterion = max iterations
  Energy initial, next-to-last, final = 
      20063.2590745571   7802.22277130519    7733.0117096918
  Force two-norm initial, final = 1418.7661 414.27406
  Force max component initial, final = 151.57225 40.067837
  Final line search alpha, max atom move = 0.0016415404 0.065772971
  Iterations, force evaluations = 100 151

MPI task timing breakdown:
Section |  min time  |  avg time  |  max time  |%varavg| %total
---------------------------------------------------------------
Pair    | 0.0079382  | 0.03192    | 0.056624   |   9.8 | 39.12
Bond    | 0.016599   | 0.018367   | 0.020456   |   0.8 | 22.51
Neigh   | 0.0024525  | 0.0024727  | 0.0024903  |   0.0 |  3.03
Comm    | 0.0025999  | 0.027078   | 0.049674   |  10.3 | 33.19
Output  | 0.00020339 | 0.00022936 | 0.00025134 |   0.0 |  0.28
Modify  | 2.2657e-05 | 2.5023e-05 | 2.8692e-05 |   0.0 |  0.03
Other   |            | 0.001496   |            |       |  1.83

Nlocal:         86.625 ave          96 max          80 min
Histogram: 1 3 0 0 0 1 2 0 0 1
Nghost:        434.875 ave         456 max         416 min
Histogram: 4 0 0 0 0 0 0 0 1 3
Neighs:        11665.1 ave       20622 max        2886 min
Histogram: 2 0 0 2 0 0 2 0 0 2

Total # of neighbors = 93321
Ave neighs/atom = 134.66234
Ave special neighs/atom = 17.064935
Neighbor list builds = 5
Dangerous builds = 0
# or
# fix mynvt2 cnt_bot nvt temp 300 300 100
# run 2000
# unfix mynvt2

run 10000
Generated 0 of 0 mixed pair_coeff terms from geometric mixing rule
Per MPI rank memory allocation (min/avg/max) = 14.07 | 14.07 | 14.07 Mbytes
   Step          Temp          TotEng         v_Lcnt    
     21400   1235.89        10282.307      61.187632    
     21500   885.36886      10249.651      61.148289    
     21600   955.61567      10255.501      60.781829    
     21700   942.58046      10261.072      60.187644    
     21800   887.1078       10255.338      59.843385    
     21900   1005.2192      10216.643      59.876883    
     22000   1112.798       10146.814      60.032585    
     22100   1109.76        10058.49       60.00703     
     22200   1192.1563      9954.6788      59.934729    
     22300   1266.8489      9832.3139      59.655275    
     22400   1277.5537      9680.2805      59.507365    
     22500   1332.9919      9505.7013      59.442105    
     22600   1393.9174      9303.6643      59.471115    
     22700   1389.3314      9086.9266      59.385368    
     22800   1410.5056      8859.8501      59.268747    
     22900   1446.3794      8621.5789      59.066147    
     23000   1413.8527      8371.2607      58.931058    
     23100   1402.7693      8120.5933      58.79556     
     23200   1415.2113      7856.5384      58.75386     
     23300   1378.3457      7590.7489      58.626802    
     23400   1357.6131      7329.9439      58.493436    
     23500   1336.6595      7074.3072      58.269614    
     23600   1278.3592      6822.9604      58.085261    
     23700   1240.5134      6580.4497      57.925711    
     23800   1191.8894      6336.6255      57.857851    
     23900   1129.5993      6102.913       57.751226    
     24000   1078.6459      5875.6797      57.617052    
     24100   1016.4535      5659.5646      57.425185    
     24200   955.94906      5457.9698      57.260469    
     24300   911.19738      5270.8179      57.10473     
     24400   853.78481      5092.2101      57.007871    
     24500   813.71942      4926.6541      56.910197    
     24600   775.61224      4775.3292      56.790767    
     24700   738.96689      4642.0823      56.616461    
     24800   723.28617      4515.799       56.469426    
     24900   703.22426      4392.3612      56.347163    
     25000   671.24914      4276.0031      56.275218    
     25100   647.29457      4164.454       56.180024    
     25200   601.38149      4060.3533      56.052632    
     25300   559.09953      3969.3077      55.88263     
     25400   533.02799      3888.6515      55.742922    
     25500   501.88454      3819.2573      55.624602    
     25600   474.58129      3760.1777      55.526415    
     25700   461.13247      3708.1681      55.415807    
     25800   437.91547      3662.6265      55.297861    
     25900   421.60288      3622.9551      55.160295    
     26000   409.57083      3580.4928      55.059375    
     26100   387.64335      3539.0366      54.972269    
     26200   364.75072      3500.6726      54.902947    
     26300   350.07776      3462.59        54.814821    
     26400   324.47411      3424.8498      54.727864    
     26500   304.17974      3389.8825      54.641077    
     26600   290.70328      3357.0456      54.591599    
     26700   272.23069      3326.5162      54.552673    
     26800   260.93029      3300.9558      54.527149    
     26900   258.56217      3278.0226      54.489684    
     27000   244.37787      3255.3219      54.468579    
     27100   236.05875      3236.6024      54.468538    
     27200   230.11001      3219.3439      54.485171    
     27300   218.45237      3205.5023      54.483841    
     27400   209.9892       3195.08        54.475563    
     27500   206.53516      3186.4147      54.4501      
     27600   191.57779      3179.9863      54.455986    
     27700   183.25781      3172.913       54.479369    
     27800   177.05202      3168.8443      54.515042    
     27900   164.4301       3165.1788      54.528247    
     28000   157.27253      3160.8137      54.532758    
     28100   151.25377      3158.3719      54.536299    
     28200   139.96715      3154.9878      54.548465    
     28300   136.56441      3152.5111      54.549714    
     28400   136.72711      3150.5917      54.535223    
     28500   134.15492      3149.438       54.473401    
     28600   136.37644      3148.8922      54.380607    
     28700   131.97424      3148.5238      54.293156    
     28800   130.30176      3149.0661      54.249732    
     28900   126.80241      3148.8532      54.233644    
     29000   124.47004      3147.0521      54.215454    
     29100   121.61627      3145.4743      54.17127     
     29200   115.89099      3142.9397      54.122836    
     29300   117.56606      3142.0563      54.097142    
     29400   116.25462      3142.311       54.10956     
     29500   117.63904      3143.7599      54.13472     
     29600   120.04313      3148.0717      54.143112    
     29700   120.19355      3155.4738      54.121964    
     29800   123.91444      3166.0446      54.094187    
     29900   122.33879      3175.8186      54.093215    
     30000   118.4223       3186.6337      54.139958    
     30100   115.17724      3199.8579      54.192466    
     30200   106.24659      3211.5074      54.212244    
     30300   108.41674      3223.0241      54.206528    
     30400   115.90328      3237.793       54.201256    
     30500   129.26301      3255.7842      54.211032    
     30600   154.83772      3278.7584      54.256779    
     30700   164.81684      3304.1477      54.315825    
     30800   187.85184      3330.735       54.353582    
     30900   214.60365      3357.9869      54.367597    
     31000   217.48499      3379.7647      54.36693     
     31100   226.94312      3397.8199      54.389578    
     31200   232.4216       3411.6863      54.466498    
     31300   222.81081      3420.058       54.556868    
     31400   228.12917      3426.9829      54.624255    
Loop time of 3.55789 on 8 procs for 10000 steps with 693 atoms

Performance: 24.284 ns/day, 0.988 hours/ns, 2810.653 timesteps/s, 1.948 Matom-step/s
100.0% CPU use with 8 MPI tasks x 1 OpenMP threads

MPI task timing breakdown:
Section |  min time  |  avg time  |  max time  |%varavg| %total
---------------------------------------------------------------
Pair    | 0.22609    | 0.97207    | 2.107      |  59.7 | 27.32
Bond    | 0.72609    | 0.99895    | 1.3885     |  26.4 | 28.08
Neigh   | 0.0070261  | 0.007656   | 0.0082956  |   0.7 |  0.22
Comm    | 0.1709     | 1.4416     | 2.4177     |  57.7 | 40.52
Output  | 0.017827   | 0.019611   | 0.021537   |   0.9 |  0.55
Modify  | 0.078538   | 0.093148   | 0.1185     |   3.8 |  2.62
Other   |            | 0.02481    |            |       |  0.70

Nlocal:         86.625 ave         121 max          55 min
Histogram: 4 0 0 0 0 0 0 0 1 3
Nghost:        460.375 ave         555 max         367 min
Histogram: 4 0 0 0 0 0 0 0 0 4
Neighs:        13058.5 ave       30898 max        2727 min
Histogram: 2 1 1 1 1 0 1 0 0 1

Total # of neighbors = 104468
Ave neighs/atom = 150.74747
Ave special neighs/atom = 17.064935
Neighbor list builds = 13
Dangerous builds = 0
Total wall time: 0:00:09
