LAMMPS (22 Jul 2025)
OMP_NUM_THREADS environment is not set. Defaulting to 1 thread.
  using 1 OpenMP thread(s) per MPI task
# 3D Lennard-Jones Liquid Simulation
# Based on LAMMPS melt example

# Initialize simulation
units           lj
atom_style      atomic

# Create simulation box with FCC lattice
lattice         fcc 0.8442
Lattice spacing in x,y,z = 1.6795962 1.6795962 1.6795962
region          box block 0 10 0 10 0 10
create_box      1 box
Created orthogonal box = (0 0 0) to (16.795962 16.795962 16.795962)
  1 by 1 by 1 MPI processor grid
create_atoms    1 box
Created 4000 atoms
  using lattice units in orthogonal box = (0 0 0) to (16.795962 16.795962 16.795962)
  create_atoms CPU = 0.001 seconds
mass            1 1.0

# Initialize velocities at temperature 3.0 (in LJ units)
velocity        all create 3.0 87287 loop geom

# Define Lennard-Jones potential
pair_style      lj/cut 2.5
pair_coeff      1 1 1.0 1.0 2.5

# Neighbor list settings
neighbor        0.3 bin
neigh_modify    every 20 delay 0 check no

# Time integration (NVE ensemble)
fix             1 all nve

# Output trajectory
dump            1 all atom 50 dump.lj_liquid

# Output thermodynamic data
thermo_style    custom step temp pe ke etotal press vol density
thermo          50

# Compute Radial Distribution Function (RDF)
# Syntax: compute ID group-ID rdf Nbin type1 type2 [cutoff value]
# RDF cutoff must be <= pair potential cutoff (2.5)
compute         myRDF all rdf 100 1 1 cutoff 2.5
# Output RDF averaged over time (every 50 steps, average over 1000 steps)
fix             2 all ave/time 50 20 1000 c_myRDF[*] file rdf.dat mode vector

# Run simulation
timestep        0.005
run             5000
Generated 0 of 0 mixed pair_coeff terms from geometric mixing rule
Neighbor list info ...
  update: every = 20 steps, delay = 0 steps, check = no
  max neighbors/atom: 2000, page size: 100000
  master list distance cutoff = 2.8
  ghost atom cutoff = 2.8
  binsize = 1.4, bins = 12 12 12
  2 neighbor lists, perpetual/occasional/extra = 1 1 0
  (1) pair lj/cut, perpetual
      attributes: half, newton on
      pair build: half/bin/atomonly/newton
      stencil: half/bin/3d
      bin: standard
  (2) compute rdf, occasional, copy from (1)
      attributes: half, newton on
      pair build: copy
      stencil: none
      bin: none
Per MPI rank memory allocation (min/avg/max) = 3.347 | 3.347 | 3.347 Mbytes
   Step          Temp          PotEng         KinEng         TotEng         Press          Volume        Density    
         0   3             -6.7733681      4.498875      -2.2744931     -3.7033504      4738.2137      0.8442       
        50   1.6842865     -4.8082494      2.5257982     -2.2824513      5.5666131      4738.2137      0.8442       
       100   1.6712577     -4.7875609      2.5062599     -2.281301       5.6613913      4738.2137      0.8442       
       150   1.6444751     -4.7471034      2.4660959     -2.2810074      5.8614211      4738.2137      0.8442       
       200   1.6471542     -4.7509053      2.4701137     -2.2807916      5.8805431      4738.2137      0.8442       
       250   1.6645597     -4.7774327      2.4962153     -2.2812174      5.7526089      4738.2137      0.8442       
       300   1.6690862     -4.7847612      2.5030033     -2.2817579      5.6987134      4738.2137      0.8442       
       350   1.6631594     -4.7751734      2.4941154     -2.2810579      5.7736731      4738.2137      0.8442       
       400   1.6419785     -4.7444455      2.4623521     -2.2820934      5.8758775      4738.2137      0.8442       
       450   1.6628543     -4.7763955      2.4936579     -2.2827377      5.7986836      4738.2137      0.8442       
       500   1.6537895     -4.7631505      2.480064      -2.2830864      5.775773       4738.2137      0.8442       
       550   1.6297832     -4.7270662      2.4440636     -2.2830026      5.9350286      4738.2137      0.8442       
       600   1.6271964     -4.7231038      2.4401844     -2.2829194      6.0017252      4738.2137      0.8442       
       650   1.618136      -4.7100691      2.4265971     -2.283472       5.9850797      4738.2137      0.8442       
       700   1.621158      -4.7155258      2.431129      -2.2843968      6.0152501      4738.2137      0.8442       
       750   1.6573877     -4.7697579      2.48546       -2.284298       5.7680876      4738.2137      0.8442       
       800   1.6438707     -4.7500744      2.4651897     -2.2848847      5.8353754      4738.2137      0.8442       
       850   1.6499626     -4.7593362      2.4743252     -2.285011       5.8231433      4738.2137      0.8442       
       900   1.6476767     -4.7570115      2.4708971     -2.2861144      5.811443       4738.2137      0.8442       
       950   1.6404138     -4.7459414      2.4600055     -2.2859358      5.8637915      4738.2137      0.8442       
      1000   1.6606768     -4.7765394      2.4903925     -2.286147       5.7518622      4738.2137      0.8442       
      1050   1.6458417     -4.7539311      2.4681454     -2.2857857      5.8348059      4738.2137      0.8442       
      1100   1.6304814     -4.7321185      2.4451107     -2.2870078      5.900562       4738.2137      0.8442       
      1150   1.6416005     -4.749281       2.4617851     -2.2874959      5.8406128      4738.2137      0.8442       
      1200   1.6435207     -4.7527813      2.4646647     -2.2881166      5.851229       4738.2137      0.8442       
      1250   1.6690095     -4.7903114      2.5028883     -2.2874231      5.6997358      4738.2137      0.8442       
      1300   1.6542861     -4.7686466      2.4808087     -2.2878379      5.7699272      4738.2137      0.8442       
      1350   1.6231466     -4.7221805      2.4341112     -2.2880692      5.9670674      4738.2137      0.8442       
      1400   1.6454544     -4.7567065      2.4675646     -2.2891419      5.8047789      4738.2137      0.8442       
      1450   1.6437536     -4.7540696      2.4650139     -2.2890557      5.8517923      4738.2137      0.8442       
      1500   1.6533764     -4.7689838      2.4794445     -2.2895393      5.7754283      4738.2137      0.8442       
      1550   1.6582661     -4.7765633      2.4867772     -2.2897861      5.7216492      4738.2137      0.8442       
      1600   1.6287605     -4.7322646      2.44253       -2.2897345      5.9100704      4738.2137      0.8442       
      1650   1.6610712     -4.7817306      2.490984      -2.2907467      5.6953322      4738.2137      0.8442       
      1700   1.6469608     -4.7607086      2.4698236     -2.290885       5.8067025      4738.2137      0.8442       
      1750   1.6341024     -4.7411252      2.4505408     -2.2905844      5.8705156      4738.2137      0.8442       
      1800   1.6342131     -4.7424142      2.4507068     -2.2917074      5.8685987      4738.2137      0.8442       
      1850   1.6484655     -4.7633507      2.4720801     -2.2912706      5.7907425      4738.2137      0.8442       
      1900   1.6692112     -4.7947337      2.5031908     -2.2915429      5.7324243      4738.2137      0.8442       
      1950   1.6291117     -4.7353068      2.4430566     -2.2922501      5.8999325      4738.2137      0.8442       
      2000   1.6515582     -4.7694075      2.476718      -2.2926895      5.7618401      4738.2137      0.8442       
      2050   1.6200381     -4.7223997      2.4294496     -2.2929501      5.9552062      4738.2137      0.8442       
      2100   1.6258312     -4.7313019      2.4381371     -2.2931648      5.8916472      4738.2137      0.8442       
      2150   1.6542571     -4.7735485      2.4807652     -2.2927833      5.7733419      4738.2137      0.8442       
      2200   1.6442671     -4.7597253      2.4657841     -2.2939413      5.846499       4738.2137      0.8442       
      2250   1.6324064     -4.7419119      2.4479974     -2.2939145      5.8729735      4738.2137      0.8442       
      2300   1.6338149     -4.7441061      2.4501097     -2.2939964      5.9053902      4738.2137      0.8442       
      2350   1.6295871     -4.7382756      2.4437695     -2.2945061      5.8650425      4738.2137      0.8442       
      2400   1.6254042     -4.7329631      2.4374968     -2.2954663      5.8936803      4738.2137      0.8442       
      2450   1.6625166     -4.7881548      2.4931514     -2.2950034      5.7416738      4738.2137      0.8442       
      2500   1.6342545     -4.746209       2.4507689     -2.2954401      5.871397       4738.2137      0.8442       
      2550   1.6208865     -4.727582       2.430722      -2.29686        5.9237084      4738.2137      0.8442       
      2600   1.6291471     -4.739538       2.4431098     -2.2964282      5.8635032      4738.2137      0.8442       
      2650   1.641625      -4.7587545      2.4618218     -2.2969326      5.7747403      4738.2137      0.8442       
      2700   1.6569085     -4.7820038      2.4847415     -2.2972623      5.7361052      4738.2137      0.8442       
      2750   1.6638033     -4.7929671      2.495081      -2.2978861      5.7170083      4738.2137      0.8442       
      2800   1.6465415     -4.7669956      2.4691949     -2.2978008      5.7764253      4738.2137      0.8442       
      2850   1.6466907     -4.7670669      2.4694185     -2.2976483      5.7450434      4738.2137      0.8442       
      2900   1.6435927     -4.7629264      2.4647727     -2.2981537      5.8121395      4738.2137      0.8442       
      2950   1.6076817     -4.7091893      2.4109197     -2.2982696      5.989849       4738.2137      0.8442       
      3000   1.6219514     -4.7316147      2.4323189     -2.2992957      5.9287916      4738.2137      0.8442       
      3050   1.6474777     -4.7705356      2.4705988     -2.2999368      5.775939       4738.2137      0.8442       
      3100   1.6391808     -4.7577414      2.4581565     -2.2995849      5.8249726      4738.2137      0.8442       
      3150   1.655981      -4.783828       2.4833506     -2.3004775      5.689831       4738.2137      0.8442       
      3200   1.6436237     -4.7645568      2.4648192     -2.2997376      5.7698         4738.2137      0.8442       
      3250   1.6505245     -4.7762844      2.4751678     -2.3011166      5.6875206      4738.2137      0.8442       
      3300   1.6424428     -4.7636076      2.4630482     -2.3005594      5.8055508      4738.2137      0.8442       
      3350   1.6444656     -4.7676462      2.4660818     -2.3015644      5.7658906      4738.2137      0.8442       
      3400   1.6442687     -4.7674507      2.4657864     -2.3016643      5.781434       4738.2137      0.8442       
      3450   1.627002      -4.7421906      2.4398928     -2.3022978      5.8785023      4738.2137      0.8442       
      3500   1.6362049     -4.75654        2.4536937     -2.3028463      5.7625476      4738.2137      0.8442       
      3550   1.6314713     -4.749164       2.4465952     -2.3025688      5.8509308      4738.2137      0.8442       
      3600   1.6379826     -4.7593942      2.4563597     -2.3030345      5.8119141      4738.2137      0.8442       
      3650   1.6438561     -4.7676307      2.4651677     -2.3024629      5.7840181      4738.2137      0.8442       
      3700   1.6155648     -4.7263673      2.4227414     -2.3036259      5.9412147      4738.2137      0.8442       
      3750   1.6468315     -4.7731429      2.4696297     -2.3035132      5.759098       4738.2137      0.8442       
      3800   1.6334295     -4.7545179      2.4495317     -2.3049863      5.7974341      4738.2137      0.8442       
      3850   1.6132559     -4.7244977      2.4192789     -2.3052188      5.9182451      4738.2137      0.8442       
      3900   1.6528227     -4.7835926      2.4786142     -2.3049783      5.714734       4738.2137      0.8442       
      3950   1.6338763     -4.7551431      2.4502018     -2.3049413      5.8398986      4738.2137      0.8442       
      4000   1.6360876     -4.7587454      2.4535179     -2.3052276      5.8015078      4738.2137      0.8442       
      4050   1.6153784     -4.7281664      2.4224618     -2.3057046      5.9310164      4738.2137      0.8442       
      4100   1.618743      -4.7336997      2.4275075     -2.3061922      5.9038076      4738.2137      0.8442       
      4150   1.6386246     -4.7636452      2.4573224     -2.3063228      5.7802293      4738.2137      0.8442       
      4200   1.6344997     -4.7581874      2.4511367     -2.3070507      5.7855854      4738.2137      0.8442       
      4250   1.6009837     -4.7081117      2.4008752     -2.3072365      6.0047086      4738.2137      0.8442       
      4300   1.6449051     -4.7741441      2.4667408     -2.3074033      5.7648526      4738.2137      0.8442       
      4350   1.6225918     -4.7406726      2.4332792     -2.3073934      5.8987738      4738.2137      0.8442       
      4400   1.6083006     -4.7196549      2.4118478     -2.3078071      5.9859379      4738.2137      0.8442       
      4450   1.635987      -4.7623948      2.453367      -2.3090278      5.7809884      4738.2137      0.8442       
      4500   1.6135579     -4.7285115      2.4197318     -2.3087797      5.9158178      4738.2137      0.8442       
      4550   1.6514936     -4.7856135      2.4766211     -2.3089924      5.6601731      4738.2137      0.8442       
      4600   1.6261859     -4.7484061      2.438669      -2.3097371      5.8504643      4738.2137      0.8442       
      4650   1.6108735     -4.7251068      2.4157062     -2.3094006      5.9262129      4738.2137      0.8442       
      4700   1.6238231     -4.7451078      2.4351257     -2.3099821      5.8619604      4738.2137      0.8442       
      4750   1.628219      -4.751933       2.4417179     -2.3102151      5.8178977      4738.2137      0.8442       
      4800   1.6469343     -4.7804351      2.4697839     -2.3106512      5.7006451      4738.2137      0.8442       
      4850   1.6317113     -4.7582548      2.446955      -2.3112998      5.7886554      4738.2137      0.8442       
      4900   1.6393824     -4.769694       2.4584588     -2.3112352      5.776912       4738.2137      0.8442       
      4950   1.6285704     -4.7538216      2.4422449     -2.3115767      5.810994       4738.2137      0.8442       
      5000   1.6509678     -4.7884724      2.4758326     -2.3126398      5.6781237      4738.2137      0.8442       
Loop time of 16.1644 on 1 procs for 5000 steps with 4000 atoms

Performance: 133627.300 tau/day, 309.322 timesteps/s, 1.237 Matom-step/s
99.6% CPU use with 1 MPI tasks x 1 OpenMP threads

MPI task timing breakdown:
Section |  min time  |  avg time  |  max time  |%varavg| %total
---------------------------------------------------------------
Pair    | 12.668     | 12.668     | 12.668     |   0.0 | 78.37
Neigh   | 2.1134     | 2.1134     | 2.1134     |   0.0 | 13.07
Comm    | 0.21378    | 0.21378    | 0.21378    |   0.0 |  1.32
Output  | 0.5449     | 0.5449     | 0.5449     |   0.0 |  3.37
Modify  | 0.58591    | 0.58591    | 0.58591    |   0.0 |  3.62
Other   |            | 0.03853    |            |       |  0.24

Nlocal:           4000 ave        4000 max        4000 min
Histogram: 1 0 0 0 0 0 0 0 0 0
Nghost:           5547 ave        5547 max        5547 min
Histogram: 1 0 0 0 0 0 0 0 0 0
Neighs:         151495 ave      151495 max      151495 min
Histogram: 1 0 0 0 0 0 0 0 0 0

Total # of neighbors = 151495
Ave neighs/atom = 37.87375
Neighbor list builds = 250
Dangerous builds not checked
Total wall time: 0:00:16

